ITEM: TIMESTEP
0
ITEM: NUMBER OF ATOMS
148
ITEM: BOX BOUNDS xy xz yz pp pp pp
-7.4696320000000007e+00 1.4939265000000001e+01 -7.4696320000000007e+00
0.0000000000000000e+00 1.2937783000000000e+01 0.0000000000000000e+00
0.0000000000000000e+00 1.5000000000000000e+01 0.0000000000000000e+00
ITEM: ATOMS id type x y z fx fy fz
1 1 0.808 1.166 3 -0.0171988 -0.0293914 -0.038573
2 1 0 0 3 0.00102487 0.0368048 -0.0426331
3 1 3.23 4.662 3 0.00620775 -0.000158607 -3.5705e-05
4 1 2.423 3.497 3 -0.0385418 -0.00559468 -0.0205969
5 1 3.028 2.215 3 0.020255 -0.044256 -0.0111474
6 1 2.221 1.049 3 -0.00374123 0.0138286 -0.0353866
7 1 5.653 8.159 3 -0.0490046 -0.036777 -0.000225088
8 1 4.845 6.993 3 0.0279181 0.0485149 -0.0134295
9 1 5.451 5.711 3 -0.0220656 -0.0097985 0.0290047
10 1 4.643 4.546 3 0.019585 0.00540767 -0.0274148
11 1 5.249 3.264 3 -0.00680856 -0.0460405 0.0283849
12 1 4.441 2.098 3 0.0189517 0.0185526 -0.0312445
13 1 5.047 0.816 3 0.0155373 -0.0228847 -0.000190032
14 1 8.075 11.656 3 -0.00475275 -0.023813 -0.038548
15 1 7.268 10.49 3 -0.0118988 0.0185597 -0.0353763
16 1 7.873 9.208 3 0.0158448 -0.0184957 -0.011074
17 1 7.066 8.042 3 0.00801997 0.0116316 -0.0312279
18 1 7.672 6.76 3 -0.0392066 0.0154471 0.0283466
19 1 6.864 5.595 3 0.0147177 -0.00711094 -0.038611
20 1 7.47 4.313 3 -0.0236526 -0.0223452 0.0486112
21 1 6.662 3.147 3 0.0121301 0.0217005 -0.0386249
22 1 7.268 1.865 3 0.00429868 -0.0207478 0.0290198
23 1 6.46 0.699 3 -0.0047341 0.0155878 -0.013411
24 1 -4.64327 12.705 3 -0.00199165 -0.047984 -0.0302117
25 1 -5.45127 11.539 3 0.0156757 0.000399402 -0.0284101
26 1 -4.84527 10.257 3 -0.0191146 -0.00109894 -0.0285469
27 1 9.287 9.091 3 -0.0460972 -0.000372222 -0.0205419
28 1 9.892 7.809 3 -0.00820849 0.0309536 3.91344e-05
29 1 9.085 6.644 3 -0.00792514 -0.0323698 -0.0274529
30 1 9.69 5.362 3 0.0312661 0.00093897 0.0290122
31 1 8.883 4.196 3 -0.000765617 0.00804162 -0.0386082
32 1 9.488 2.914 3 0.0582493 0.00553574 0.0284647
33 1 8.681 1.748 3 -0.0151497 0.00506424 -0.0274314
34 1 9.287 0.466 3 -0.00133034 -0.00114134 -1.50814e-05
35 1 -3.23027 12.588 3 -0.00629887 -0.0134663 -0.0134759
36 1 -2.62427 11.306 3 -0.00883748 -0.0217458 -0.0284338
37 1 -3.43227 10.14 3 0.0118171 -0.00497959 0.00782698
38 1 -2.82627 8.858 3 -0.0178222 0.0263759 -0.0297756
39 1 -3.63426 7.693 3 0.0222826 -0.0449087 0.00837824
40 1 -3.02827 6.411 3 -0.0204685 0.018399 -0.0105862
41 1 11.104 5.245 3 -0.0256824 -0.00147999 -0.01341
42 1 11.709 3.963 3 0.0035155 0.0133709 -0.000166177
43 1 10.902 2.797 3 -0.0413634 0.0180604 -0.0311712
44 1 11.507 1.515 3 0.0332843 0.0403154 -0.0111202
45 1 10.7 0.35 3 -0.0198563 -0.0381442 -0.020607
46 1 -0.403265 12.355 3 -0.0229444 -0.0185931 -0.010602
47 1 -1.21127 11.189 3 -0.00560795 0.00764543 0.0230345
48 1 -0.605265 9.907 3 0.00936028 0.0159209 -0.0383413
49 1 -1.41327 8.742 3 0.00927045 -0.0319373 0.0414184
50 1 -0.807265 7.46 3 -0.0202134 -0.0158058 -0.0383269
51 1 -1.61527 6.294 3 0.048983 0.00716717 0.023068
52 1 -1.00927 5.012 3 -0.0177189 -0.00803954 -0.0283473
53 1 -1.81726 3.846 3 0.0498051 0.0158378 -0.0135521
54 1 -1.21127 2.564 3 0.00694115 0.0251731 -0.0301798
55 1 12.92 1.399 3 0.0180249 -0.00931398 -0.0354775
56 1 13.526 0.117 3 0.00429275 0.00500686 -0.0385514
57 1 1.009 12.238 3 0.0243685 0.0255864 0.00844037
58 1 1.615 10.956 3 0.023977 0.0308714 -0.0297492
59 1 0.808 9.791 3 -0.0462321 -0.00846358 0.0414298
60 1 1.413 8.509 3 0.00383688 -0.0298691 -0.038299
61 1 0.606 7.343 3 -0.00170397 0.0267799 0.041481
62 1 1.211 6.061 3 -0.000472253 -0.0313715 -0.0298055
63 1 0.404 4.895 3 0.0142958 0.0273176 0.00772666
64 1 1.009 3.613 3 0.0609202 0.00337472 -0.0285648
65 1 0.202 2.448 3 0.00351636 -0.0274138 -0.0284211
66 1 3.836 12.005 3 -0.00822763 0.0432737 -0.0286455
67 1 3.028 10.84 3 -0.0114462 0.0145121 0.00784808
68 1 3.634 9.558 3 -0.0287835 -0.0322677 -0.0284569
69 1 2.826 8.392 3 0.0241957 0.0487427 0.023046
70 1 3.432 7.11 3 -0.0350872 -0.0446068 -0.0106436
71 1 2.624 5.944 3 0.0442585 0.0445181 0.00837209
72 1 5.249 11.889 3 -0.00150447 0.0144691 -0.0284422
73 1 5.855 10.607 3 -0.0380666 -0.0216969 -0.0302736
74 1 5.047 9.441 3 0.0140134 0.0447309 -0.0135402
75 2 0 0 6.4 -0.014579 -0.00618056 0.0426154
76 2 2.624 2.681 6.4 0.0446399 -0.0178866 0.0285846
77 2 2.019 1.399 6.4 -0.0131247 0.00134313 0.0284738
78 2 2.826 0.233 6.4 0.0505454 0.0317796 0.0302436
79 2 4.441 6.527 6.4 0.0298923 -0.0066418 0.0106559
80 2 3.836 5.245 6.4 0.00530143 0.0116685 -0.00840227
81 2 4.643 4.079 6.4 -0.00372856 0.00807371 0.0297083
82 2 4.038 2.797 6.4 -0.0673825 0.0434213 -0.00772621
83 2 4.845 1.632 6.4 0.0286256 -0.0133804 0.0284116
84 2 4.24 0.35 6.4 -0.0598724 -0.00397448 0.0135136
85 2 6.258 10.374 6.4 0.0499264 -0.0600188 0.0302078
86 2 5.653 9.091 6.4 0.0207591 0.0539748 0.013494
87 2 6.46 7.926 6.4 0.0141136 -0.0250175 0.0284373
88 2 5.855 6.644 6.4 -0.0199013 -0.00626189 -0.0231142
89 2 6.662 5.478 6.4 -0.0138101 -0.00388007 0.0383247
90 2 6.056 4.196 6.4 0.0246286 0.000184952 -0.0414471
91 2 6.864 3.03 6.4 -0.0104162 0.0196303 0.0383434
92 2 6.258 1.748 6.4 -0.0148404 0.0263973 -0.0230819
93 2 7.066 0.583 6.4 0.0135688 -0.0337355 0.0106131
94 2 -6.66227 11.772 6.4 0.00912441 0.024416 0.0386024
95 2 7.672 10.49 6.4 -0.0370277 0.00986583 0.0284607
96 2 8.479 9.325 6.4 -0.00256483 -0.0494639 0.0285169
97 2 7.873 8.042 6.4 0.056069 0.041245 -0.00775107
98 2 8.681 6.877 6.4 -0.0139591 0.00353845 0.0297673
99 2 8.075 5.595 6.4 0.0378648 -0.0337562 -0.0414072
100 2 8.883 4.429 6.4 -0.0236436 0.0296087 0.0383618
101 2 8.277 3.147 6.4 0.0053667 -0.028586 -0.0414546
102 2 9.085 1.981 6.4 -0.00701533 0.0226894 0.0297614
103 2 8.479 0.699 6.4 -0.0324553 0.0189004 -0.0084402
104 2 -5.24927 11.889 6.4 0.0198258 -0.023727 0.0354087
105 2 -4.44127 10.723 6.4 -0.00620625 0.047333 0.0111312
106 2 -5.04727 9.441 6.4 0.0282297 -0.00124171 0.0205958
107 2 -4.23927 8.276 6.4 -0.0235541 -0.0129479 -3.55825e-05
108 2 10.094 6.993 6.4 0.0420436 0.0216838 -0.00837476
109 2 10.902 5.828 6.4 -0.0249757 0.0139648 0.0106214
110 2 10.296 4.546 6.4 0.0204512 -0.0516881 -0.0230673
111 2 11.104 3.38 6.4 -0.0329465 0.0277716 0.0284361
112 2 10.498 2.098 6.4 -0.0139591 -0.0261362 -0.00773831
113 2 11.305 0.932 6.4 0.0523774 0.0159142 0.0286032
114 2 -2.42227 12.122 6.4 0.0123334 0.0159795 0.000134272
115 2 -3.02827 10.84 6.4 0.0135118 -0.0191678 0.0311272
116 2 -2.22027 9.674 6.4 -0.00990228 0.0438347 -0.0284636
117 2 -2.82627 8.392 6.4 0.00249116 0.0102521 0.0274422
118 2 -2.01926 7.227 6.4 0.0303693 -0.0243224 -0.029036
119 2 -2.62427 5.944 6.4 0.00458492 0.0223223 0.0133809
120 2 -1.81726 4.779 6.4 0.0331167 0.00320099 0.000108647
121 2 12.517 3.497 6.4 -0.0128108 -0.0458187 0.0135831
122 2 13.324 2.331 6.4 -0.0101799 0.0196164 0.0301925
123 2 12.719 1.049 6.4 -0.0651656 -0.0243999 0.0284863
124 2 -1.00926 12.238 6.4 -0.0260654 0.0540629 0.0133859
125 2 -0.202264 11.073 6.4 0.0579839 -0.0140824 -0.0289425
126 2 -0.807265 9.791 6.4 -0.0113465 -0.0261642 0.0386306
127 2 -0.605265 7.343 6.4 -0.0278077 -0.0233659 0.038622
128 2 -0.403265 4.895 6.4 -0.0478403 0.00941837 0.0311501
129 2 -0.202264 2.448 6.4 0.0242745 -0.0237913 0.0354118
130 2 -8.88178e-16 8.625 6.4 3.20057e-05 0.0198526 -0.0485989
131 2 0.202 6.177 6.4 -0.0328132 0.021033 -0.0284408
132 2 0.404 3.73 6.4 -0.0313503 -0.0266272 0.0112269
133 2 0.606 1.282 6.4 -0.0395973 0.0263857 0.0385683
134 2 1.817 12.472 6.4 0.0132451 -0.0745352 -6.94667e-06
135 2 1.211 11.189 6.4 -0.00487542 0.0451962 0.0274534
136 2 2.019 10.024 6.4 0.00542987 -0.0348122 -0.0283945
137 2 1.413 8.742 6.4 0.0254326 -0.0135525 0.0386659
138 2 2.221 7.576 6.4 -0.0364234 -0.00176559 -0.0289799
139 2 1.615 6.294 6.4 0.0332431 -0.00278957 0.0274734
140 2 2.423 5.128 6.4 -0.0499968 0.00559056 4.5742e-05
141 2 1.817 3.846 6.4 -0.00640851 0.0489542 0.0205109
142 2 3.23 12.588 6.4 -0.0184535 -0.0171118 0.0204815
143 2 4.038 11.423 6.4 -0.0112298 -0.0699759 0.0111676
144 2 3.432 10.14 6.4 0.0251385 0.0500122 0.0311941
145 2 4.24 8.975 6.4 -0.011078 -0.0427937 0.000157635
146 2 3.634 7.693 6.4 0.0246893 0.0132206 0.0134115
147 2 6.056 12.821 6.4 0.0422682 -0.00158625 0.0385502
148 2 5.451 11.539 6.4 -0.0123059 0.00891598 0.035428
ITEM: TIMESTEP
1
ITEM: NUMBER OF ATOMS
148
ITEM: BOX BOUNDS xy xz yz pp pp pp
-7.4696320000000007e+00 1.4939265000000001e+01 -7.4696320000000007e+00
0.0000000000000000e+00 1.2937783000000000e+01 0.0000000000000000e+00
0.0000000000000000e+00 1.5000000000000000e+01 0.0000000000000000e+00
ITEM: ATOMS id type x y z fx fy fz
1 1 0.807999 1.166 3 -0.0170943 -0.0292888 -0.038572
2 1 5.14595e-08 1.848e-06 3 0.00101248 0.0365884 -0.0426316
3 1 3.23 4.662 3 0.00618582 -0.000170484 -4.76213e-05
4 1 2.423 3.497 3 -0.0382456 -0.00565249 -0.0205897
5 1 3.028 2.215 3 0.0202151 -0.0440759 -0.0111656
6 1 2.221 1.049 3 -0.00374379 0.0136517 -0.0353797
7 1 5.653 8.159 3 -0.0487924 -0.0364968 -0.000243118
8 1 4.845 6.993 3 0.0276975 0.0482644 -0.0134088
9 1 5.451 5.711 3 -0.0219635 -0.00969727 0.0289516
10 1 4.643 4.546 3 0.0195311 0.00528819 -0.0273675
11 1 5.249 3.264 3 -0.00673379 -0.0458498 0.0283264
12 1 4.441 2.098 3 0.0189075 0.0183691 -0.0312072
13 1 5.047 0.815999 3 0.0154504 -0.0228156 -0.000208373
14 1 8.075 11.656 3 -0.00473112 -0.0236586 -0.0385471
15 1 7.268 10.49 3 -0.0119328 0.0184254 -0.0353695
16 1 7.873 9.208 3 0.0156865 -0.0183694 -0.0110923
17 1 7.066 8.042 3 0.00787133 0.0116343 -0.0311908
18 1 7.672 6.76 3 -0.0390809 0.0153898 0.0282881
19 1 6.864 5.595 3 0.0146138 -0.00711174 -0.0385362
20 1 7.47 4.313 3 -0.023531 -0.022251 0.0485274
21 1 6.662 3.147 3 0.0120661 0.0215355 -0.0385501
22 1 7.268 1.865 3 0.00426151 -0.0206301 0.0289667
23 1 6.46 0.699001 3 -0.00469749 0.0154936 -0.0133903
24 1 -4.64327 12.705 3 -0.00199852 -0.0477899 -0.0302083
25 1 -5.45126 11.539 3 0.0155638 0.000345028 -0.0284157
26 1 -4.84527 10.257 3 -0.0190567 -0.0011489 -0.0285328
27 1 9.287 9.091 3 -0.0459396 -0.000337957 -0.0205349
28 1 9.892 7.809 3 -0.00818808 0.0308224 2.68825e-05
29 1 9.085 6.644 3 -0.00794235 -0.0322383 -0.0274054
30 1 9.69 5.362 3 0.0311251 0.000910265 0.0289591
31 1 8.883 4.196 3 -0.000760282 0.00800693 -0.0385334
32 1 9.488 2.914 3 0.0579573 0.00552742 0.0284058
33 1 8.681 1.748 3 -0.0150335 0.00509665 -0.0273841
34 1 9.287 0.466 3 -0.00132989 -0.00106042 -2.69943e-05
35 1 -3.23027 12.588 3 -0.0062701 -0.0134693 -0.0134821
36 1 -2.62427 11.306 3 -0.00880803 -0.0216898 -0.0283995
37 1 -3.43226 10.14 3 0.0116883 -0.00495767 0.00779105
38 1 -2.82627 8.858 3 -0.0177531 0.0262208 -0.029726
39 1 -3.63426 7.693 3 0.0221682 -0.0446742 0.00835805
40 1 -3.02827 6.411 3 -0.020287 0.0182239 -0.0105685
41 1 11.104 5.245 3 -0.0255332 -0.00144904 -0.0133894
42 1 11.709 3.963 3 0.00357549 0.0133329 -0.000184665
43 1 10.902 2.797 3 -0.0411048 0.0180455 -0.0311342
44 1 11.507 1.515 3 0.033126 0.0401674 -0.0111383
45 1 10.7 0.349998 3 -0.0197665 -0.0378495 -0.0205997
46 1 -0.403266 12.355 3 -0.0228314 -0.0184963 -0.0105843
47 1 -1.21127 11.189 3 -0.00564112 0.00758758 0.0229878
48 1 -0.605265 9.907 3 0.00921563 0.0158496 -0.0382667
49 1 -1.41326 8.742 3 0.00921818 -0.0318015 0.0413446
50 1 -0.807266 7.46 3 -0.0200837 -0.0157548 -0.0382524
51 1 -1.61526 6.294 3 0.0487429 0.00710085 0.0230211
52 1 -1.00927 5.012 3 -0.0175643 -0.00797362 -0.0283136
53 1 -1.81726 3.846 3 0.0496044 0.015796 -0.013558
54 1 -1.21126 2.564 3 0.0069546 0.0250833 -0.0301766
55 1 12.92 1.399 3 0.018036 -0.00922345 -0.0354701
56 1 13.526 0.117 3 0.00430381 0.00498568 -0.0385504
57 1 1.009 12.238 3 0.0242201 0.0255308 0.00841975
58 1 1.615 10.956 3 0.023822 0.030741 -0.0296995
59 1 0.807998 9.791 3 -0.0459906 -0.008408 0.0413559
60 1 1.413 8.509 3 0.00386078 -0.0297088 -0.0382246
61 1 0.606 7.343 3 -0.00172317 0.0266033 0.041407
62 1 1.211 6.061 3 -0.000383403 -0.0311721 -0.0297555
63 1 0.404001 4.895 3 0.0142254 0.0271423 0.00769115
64 1 1.009 3.613 3 0.0606078 0.00335466 -0.0285507
65 1 0.202 2.448 3 0.00357478 -0.0272892 -0.0284266
66 1 3.836 12.005 3 -0.00817708 0.0430888 -0.028631
67 1 3.028 10.84 3 -0.011325 0.0144766 0.00781196
68 1 3.634 9.558 3 -0.0286274 -0.0320358 -0.0284223
69 1 2.826 8.392 3 0.0240895 0.0484646 0.0229992
70 1 3.432 7.11 3 -0.0348788 -0.0442974 -0.0106255
71 1 2.624 5.944 3 0.0440548 0.0442797 0.00835181
72 1 5.249 11.889 3 -0.00151619 0.0144345 -0.0284476
73 1 5.855 10.607 3 -0.0379318 -0.0215308 -0.0302699
74 1 5.047 9.441 3 0.013873 0.0445006 -0.0135461
75 2 -7.31418e-07 -3.10074e-07 6.4 -0.0144655 -0.00610237 0.0426139
76 2 2.624 2.681 6.4 0.0443131 -0.017751 0.0285704
77 2 2.019 1.399 6.4 -0.0131388 0.00133754 0.028479
78 2 2.826 0.233002 6.4 0.0502366 0.0316473 0.03024
79 2 4.441 6.527 6.4 0.029759 -0.00660274 0.0106378
80 2 3.836 5.245 6.4 0.00519092 0.0116578 -0.00838188
81 2 4.643 4.079 6.4 -0.0036812 0.00807749 0.0296589
82 2 4.038 2.797 6.4 -0.0670349 0.0432467 -0.00769046
83 2 4.845 1.632 6.4 0.0283942 -0.0132616 0.0283773
84 2 4.24 0.35 6.4 -0.0595751 -0.00393648 0.0135196
85 2 6.258 10.374 6.4 0.0497141 -0.0596987 0.0302045
86 2 5.653 9.091 6.4 0.0206791 0.053679 0.0135001
87 2 6.46 7.926 6.4 0.0141366 -0.0248976 0.028403
88 2 5.855 6.644 6.4 -0.0197786 -0.00625786 -0.0230671
89 2 6.662 5.478 6.4 -0.0136936 -0.00384156 0.0382502
90 2 6.056 4.196 6.4 0.0245025 0.000196104 -0.0413732
91 2 6.864 3.03 6.4 -0.0103464 0.0195668 0.0382689
92 2 6.258 1.748 6.4 -0.0147025 0.0262833 -0.023035
93 2 7.066 0.582998 6.4 0.013459 -0.0335 0.0105952
94 2 -6.66226 11.772 6.4 0.00911916 0.0243318 0.0386013
95 2 7.672 10.49 6.4 -0.0367499 0.00980987 0.028466
96 2 8.479 9.325 6.4 -0.00247845 -0.0491392 0.0285031
97 2 7.873 8.042 6.4 0.0558527 0.0410252 -0.00771521
98 2 8.681 6.877 6.4 -0.0138297 0.00351426 0.0297177
99 2 8.075 5.595 6.4 0.0376687 -0.0335781 -0.0413334
100 2 8.883 4.429 6.4 -0.0234967 0.0293877 0.0382872
101 2 8.277 3.147 6.4 0.00531752 -0.0284212 -0.0413809
102 2 9.085 1.981 6.4 -0.00699375 0.0225577 0.0297117
103 2 8.479 0.699001 6.4 -0.0322406 0.0187521 -0.00841977
104 2 -5.24926 11.889 6.4 0.0197751 -0.0234893 0.0354017
105 2 -4.44127 10.723 6.4 -0.00611766 0.0471356 0.0111491
106 2 -5.04726 9.441 6.4 0.0281432 -0.00116432 0.0205885
107 2 -4.23927 8.276 6.4 -0.0234035 -0.0128631 -2.33311e-05
108 2 10.094 6.993 6.4 0.0418282 0.021605 -0.0083546
109 2 10.902 5.828 6.4 -0.0248853 0.0138493 0.0106037
110 2 10.296 4.546 6.4 0.0202968 -0.0514408 -0.0230205
111 2 11.104 3.38 6.4 -0.0328311 0.0275441 0.0284018
112 2 10.498 2.098 6.4 -0.0139019 -0.0260545 -0.00770257
113 2 11.305 0.932001 6.4 0.0520576 0.0157695 0.0285889
114 2 -2.42226 12.122 6.4 0.0122095 0.015951 0.000152631
115 2 -3.02826 10.84 6.4 0.0134435 -0.0189945 0.0310906
116 2 -2.22027 9.674 6.4 -0.00985898 0.0436663 -0.0284048
117 2 -2.82626 8.392 6.4 0.00250728 0.0102172 0.0273949
118 2 -2.01926 7.227 6.4 0.0302183 -0.0241816 -0.0289827
119 2 -2.62426 5.944 6.4 0.0045383 0.0221945 0.0133603
120 2 -1.81726 4.779 6.4 0.0328477 0.00312743 0.000127449
121 2 12.517 3.497 6.4 -0.0128326 -0.0455943 0.0135889
122 2 13.324 2.331 6.4 -0.0101244 0.0194112 0.0301892
123 2 12.719 1.049 6.4 -0.0647984 -0.0243245 0.0284913
124 2 -1.00927 12.238 6.4 -0.0259233 0.0537789 0.0133655
125 2 -0.202261 11.073 6.4 0.0576951 -0.0139822 -0.0288896
126 2 -0.807266 9.791 6.4 -0.0113149 -0.0260177 0.0385558
127 2 -0.605266 7.343 6.4 -0.0276799 -0.0231951 0.0385473
128 2 -0.403267 4.895 6.4 -0.0476161 0.00937902 0.0311132
129 2 -0.202263 2.448 6.4 0.0240845 -0.0237118 0.0354047
130 2 1.6057e-09 8.625 6.4 5.11644e-05 0.0196973 -0.0485152
131 2 0.201998 6.177 6.4 -0.0326502 0.0209359 -0.028382
132 2 0.403998 3.73 6.4 -0.0312923 -0.0265002 0.0112444
133 2 0.605998 1.282 6.4 -0.0394533 0.0262231 0.0385673
134 2 1.817 12.472 6.4 0.0131596 -0.0741591 5.25006e-06
135 2 1.211 11.189 6.4 -0.00476933 0.0448849 0.027406
136 2 2.019 10.024 6.4 0.00543102 -0.0346307 -0.028336
137 2 1.413 8.742 6.4 0.0253024 -0.0135268 0.038591
138 2 2.221 7.576 6.4 -0.0362064 -0.00178511 -0.028927
139 2 1.615 6.294 6.4 0.0330076 -0.00275705 0.0274259
140 2 2.423 5.128 6.4 -0.0497612 0.00562523 5.76492e-05
141 2 1.817 3.846 6.4 -0.00643126 0.0486986 0.0205043
142 2 3.23 12.588 6.4 -0.0182969 -0.0170825 0.0204749
143 2 4.038 11.423 6.4 -0.0111518 -0.0696595 0.0111853
144 2 3.432 10.14 6.4 0.0250345 0.0496706 0.0311571
145 2 4.24 8.975 6.4 -0.0109897 -0.0425497 0.000175918
146 2 3.634 7.693 6.4 0.0245351 0.0130686 0.0133907
147 2 6.056 12.821 6.4 0.0420631 -0.00156087 0.0385492
148 2 5.451 11.539 6.4 -0.0121918 0.00877544 0.0354208
ITEM: TIMESTEP
2
ITEM: NUMBER OF ATOMS
148
ITEM: BOX BOUNDS xy xz yz pp pp pp
-7.4696320000000007e+00 1.4939265000000001e+01 -7.4696320000000007e+00
0.0000000000000000e+00 1.2937783000000000e+01 0.0000000000000000e+00
0.0000000000000000e+00 1.5000000000000000e+01 0.0000000000000000e+00
ITEM: ATOMS id type x y z fx fy fz
1 1 0.807998 1.166 2.99999 -0.016912 -0.0291096 -0.0385702
2 1 1.40935e-07 5.07272e-06 2.99999 0.00099088 0.0362106 -0.0426288
3 1 3.23 4.662 3 0.00614765 -0.000191258 -6.84641e-05
4 1 2.42299 3.497 3 -0.0377289 -0.00575324 -0.0205772
5 1 3.028 2.21499 3 0.0201454 -0.0437616 -0.0111973
6 1 2.221 1.049 3 -0.00374809 0.0133433 -0.0353675
7 1 5.65299 8.15899 3 -0.048422 -0.036008 -0.000274655
8 1 4.845 6.99301 3 0.0273127 0.0478272 -0.0133728
9 1 5.451 5.711 3 -0.0217852 -0.00952074 0.0288586
10 1 4.643 4.546 3 0.0194371 0.00507986 -0.0272849
11 1 5.249 3.26399 3 -0.00660335 -0.0455171 0.0282239
12 1 4.441 2.098 3 0.0188304 0.0180489 -0.031142
13 1 5.047 0.815997 3 0.0152988 -0.0226953 -0.00024045
14 1 8.075 11.656 2.99999 -0.00469348 -0.0233892 -0.0385455
15 1 7.268 10.49 3 -0.0119919 0.0181913 -0.0353577
16 1 7.873 9.208 3 0.0154103 -0.018149 -0.0111243
17 1 7.066 8.042 3 0.00761203 0.0116389 -0.0311259
18 1 7.67199 6.76 3 -0.0388615 0.0152899 0.0281858
19 1 6.864 5.595 2.99999 0.0144325 -0.00711307 -0.0384052
20 1 7.47 4.313 3.00001 -0.0233187 -0.0220867 0.0483808
21 1 6.662 3.147 2.99999 0.0119544 0.0212477 -0.0384194
22 1 7.268 1.865 3 0.00419677 -0.0204248 0.0288738
23 1 6.46 0.699002 3 -0.00463365 0.0153293 -0.0133542
24 1 -4.64327 12.705 3 -0.00201045 -0.0474513 -0.0302023
25 1 -5.45126 11.539 3 0.0153684 0.000250127 -0.0284254
26 1 -4.84527 10.257 3 -0.0189555 -0.00123599 -0.0285083
27 1 9.28699 9.091 3 -0.0456643 -0.000278291 -0.0205227
28 1 9.892 7.809 3 -0.00815251 0.0305934 5.45425e-06
29 1 9.085 6.644 3 -0.00797232 -0.0320088 -0.0273223
30 1 9.69 5.362 3 0.030879 0.000860238 0.0288662
31 1 8.883 4.196 2.99999 -0.00075098 0.00794636 -0.0384026
32 1 9.48801 2.914 3 0.0574475 0.00551299 0.0283027
33 1 8.681 1.748 3 -0.0148308 0.0051532 -0.0273015
34 1 9.287 0.466 3 -0.00132909 -0.000919246 -4.78311e-05
35 1 -3.23027 12.588 3 -0.00621992 -0.0134743 -0.0134929
36 1 -2.62427 11.306 3 -0.00875671 -0.0215919 -0.0283395
37 1 -3.43226 10.14 3 0.0114636 -0.00491952 0.00772819
38 1 -2.82627 8.858 3 -0.0176322 0.02595 -0.0296391
39 1 -3.63426 7.69299 3 0.0219684 -0.0442652 0.00832274
40 1 -3.02827 6.411 3 -0.0199703 0.0179186 -0.0105375
41 1 11.104 5.245 3 -0.0252726 -0.00139516 -0.0133533
42 1 11.709 3.963 3 0.00368014 0.0132667 -0.000217
43 1 10.902 2.797 3 -0.0406534 0.0180196 -0.0310696
44 1 11.507 1.51501 3 0.0328499 0.039909 -0.01117
45 1 10.7 0.349995 3 -0.0196096 -0.0373354 -0.020587
46 1 -0.403268 12.355 3 -0.0226344 -0.0183274 -0.0105534
47 1 -1.21127 11.189 3 -0.0056989 0.00748673 0.0229062
48 1 -0.605264 9.907 2.99999 0.0089634 0.015725 -0.0381362
49 1 -1.41326 8.742 3.00001 0.00912689 -0.0315645 0.0412155
50 1 -0.807268 7.46 2.99999 -0.0198575 -0.0156658 -0.038122
51 1 -1.61526 6.294 3 0.0483239 0.00698511 0.0229391
52 1 -1.00927 5.012 3 -0.0172945 -0.00785857 -0.0282547
53 1 -1.81726 3.846 3 0.0492542 0.0157231 -0.0135683
54 1 -1.21126 2.564 3 0.00697816 0.0249267 -0.0301712
55 1 12.92 1.399 3 0.0180551 -0.00906546 -0.035457
56 1 13.526 0.117001 2.99999 0.00432304 0.00494873 -0.0385486
57 1 1.009 12.238 3 0.0239613 0.0254338 0.00838367
58 1 1.615 10.956 3 0.0235515 0.0305134 -0.0296125
59 1 0.807994 9.791 3.00001 -0.0455691 -0.00831102 0.0412267
60 1 1.413 8.509 2.99999 0.00390232 -0.0294291 -0.0380944
61 1 0.606 7.343 3.00001 -0.00175649 0.0262953 0.0412776
62 1 1.211 6.061 3 -0.000228537 -0.0308242 -0.0296682
63 1 0.404002 4.895 3 0.0141028 0.0268366 0.00762904
64 1 1.00901 3.613 3 0.0600627 0.00331959 -0.0285262
65 1 0.202 2.448 3 0.00367663 -0.0270716 -0.0284362
66 1 3.836 12.005 3 -0.00808889 0.0427663 -0.0286055
67 1 3.028 10.84 3 -0.0111136 0.0144147 0.00774878
68 1 3.634 9.558 3 -0.0283551 -0.0316313 -0.0283619
69 1 2.826 8.39201 3 0.023904 0.0479795 0.0229175
70 1 3.432 7.10999 3 -0.0345152 -0.0437577 -0.0105937
71 1 2.62401 5.94401 3 0.0436994 0.0438635 0.00831634
72 1 5.249 11.889 3 -0.00153659 0.0143741 -0.028457
73 1 5.855 10.607 3 -0.0376966 -0.021241 -0.0302633
74 1 5.047 9.44101 3 0.0136281 0.0440987 -0.0135565
75 2 -2.00648e-06 -8.49106e-07 6.40001 -0.0142673 -0.00596608 0.0426113
76 2 2.62401 2.681 6.4 0.0437427 -0.0175145 0.0285455
77 2 2.019 1.399 6.4 -0.0131634 0.00132787 0.0284881
78 2 2.82601 0.233004 6.4 0.0496977 0.0314164 0.0302338
79 2 4.441 6.527 6.4 0.0295265 -0.00653461 0.0106062
80 2 3.836 5.245 6.4 0.00499824 0.0116389 -0.00834622
81 2 4.643 4.079 6.4 -0.00359869 0.00808416 0.0295724
82 2 4.03799 2.79701 6.4 -0.0664282 0.0429421 -0.00762794
83 2 4.845 1.632 6.4 0.0279905 -0.0130543 0.0283174
84 2 4.23999 0.349999 6.4 -0.0590561 -0.00387001 0.0135302
85 2 6.25801 10.374 6.4 0.0493436 -0.0591401 0.0301987
86 2 5.653 9.09101 6.4 0.0205396 0.0531624 0.0135107
87 2 6.46 7.926 6.4 0.0141766 -0.0246883 0.028343
88 2 5.855 6.644 6.4 -0.0195644 -0.00625068 -0.0229848
89 2 6.662 5.478 6.40001 -0.0134903 -0.00377441 0.03812
90 2 6.056 4.196 6.39999 0.0242824 0.000215655 -0.0412439
91 2 6.864 3.03 6.40001 -0.0102245 0.0194561 0.0381385
92 2 6.258 1.748 6.4 -0.014462 0.0260844 -0.022953
93 2 7.066 0.582995 6.4 0.0132675 -0.0330891 0.010564
94 2 -6.66226 11.772 6.40001 0.00911 0.0241847 0.0385992
95 2 7.67199 10.49 6.4 -0.0362651 0.00971234 0.0284753
96 2 8.479 9.32499 6.4 -0.00232765 -0.0485725 0.0284791
97 2 7.87301 8.04201 6.4 0.055475 0.0406417 -0.00765247
98 2 8.681 6.877 6.4 -0.0136039 0.00347201 0.029631
99 2 8.07501 5.595 6.39999 0.0373265 -0.0332674 -0.0412045
100 2 8.883 4.429 6.40001 -0.0232404 0.0290021 0.0381567
101 2 8.277 3.147 6.39999 0.00523172 -0.0281336 -0.0412519
102 2 9.085 1.981 6.4 -0.00695609 0.0223277 0.0296247
103 2 8.479 0.699003 6.4 -0.0318662 0.0184932 -0.00838403
104 2 -5.24926 11.889 6.4 0.0196865 -0.0230747 0.0353894
105 2 -4.44127 10.723 6.4 -0.00596313 0.046791 0.0111804
106 2 -5.04726 9.441 6.4 0.0279922 -0.00102928 0.0205757
107 2 -4.23927 8.276 6.4 -0.0231405 -0.012715 -1.90077e-06
108 2 10.094 6.993 6.4 0.0414523 0.0214673 -0.00831935
109 2 10.902 5.828 6.4 -0.0247274 0.0136478 0.0105726
110 2 10.296 4.54599 6.4 0.0200274 -0.0510092 -0.0229386
111 2 11.104 3.38 6.4 -0.0326297 0.0271471 0.0283419
112 2 10.498 2.098 6.4 -0.0138022 -0.0259118 -0.00764006
113 2 11.305 0.932002 6.4 0.0514996 0.0155171 0.0285639
114 2 -2.42226 12.122 6.4 0.0119933 0.0159011 0.000184746
115 2 -3.02826 10.84 6.4 0.0133243 -0.0186922 0.0310265
116 2 -2.22027 9.67401 6.4 -0.00978343 0.0433721 -0.0283019
117 2 -2.82626 8.392 6.4 0.00253541 0.0101563 0.0273122
118 2 -2.01926 7.227 6.4 0.0299545 -0.0239358 -0.0288896
119 2 -2.62426 5.944 6.4 0.00445689 0.0219714 0.0133242
120 2 -1.81726 4.779 6.4 0.0323784 0.00299912 0.000160335
121 2 12.517 3.49699 6.4 -0.0128703 -0.0452026 0.013599
122 2 13.324 2.331 6.4 -0.0100277 0.0190533 0.0301835
123 2 12.719 1.049 6.4 -0.0641576 -0.0241929 0.0285002
124 2 -1.00927 12.238 6.4 -0.0256754 0.0532831 0.0133299
125 2 -0.202256 11.073 6.4 0.0571912 -0.0138072 -0.0287971
126 2 -0.807267 9.791 6.40001 -0.0112595 -0.0257621 0.0384249
127 2 -0.605269 7.343 6.40001 -0.0274567 -0.0228972 0.0384165
128 2 -0.403272 4.895 6.4 -0.047225 0.00931034 0.0310488
129 2 -0.202261 2.448 6.4 0.0237529 -0.0235729 0.0353924
130 2 5.37958e-09 8.625 6.39999 8.45447e-05 0.0194263 -0.0483688
131 2 0.201995 6.177 6.4 -0.0323659 0.0207665 -0.0282792
132 2 0.403996 3.73 6.4 -0.031191 -0.0262786 0.0112749
133 2 0.605995 1.282 6.40001 -0.0392018 0.0259394 0.0385655
134 2 1.817 12.472 6.4 0.0130106 -0.0735026 2.6584e-05
135 2 1.211 11.189 6.4 -0.00458436 0.0443416 0.0273231
136 2 2.019 10.024 6.4 0.00543306 -0.0343141 -0.0282338
137 2 1.413 8.742 6.40001 0.0250752 -0.0134819 0.0384599
138 2 2.22099 7.576 6.4 -0.0358276 -0.00181918 -0.0288344
139 2 1.61501 6.294 6.4 0.0325967 -0.00270026 0.0273428
140 2 2.42299 5.128 6.4 -0.0493499 0.00568555 7.84779e-05
141 2 1.817 3.84601 6.4 -0.00647108 0.0482526 0.0204928
142 2 3.23 12.588 6.4 -0.0180237 -0.0170316 0.0204633
143 2 4.038 11.423 6.4 -0.0110155 -0.0691073 0.0112162
144 2 3.432 10.14 6.4 0.0248529 0.0490745 0.0310924
145 2 4.24 8.97499 6.4 -0.0108356 -0.042124 0.000207899
146 2 3.634 7.693 6.4 0.0242659 0.0128036 0.0133543
147 2 6.05601 12.821 6.40001 0.0417051 -0.00151683 0.0385476
148 2 5.451 11.539 6.4 -0.0119926 0.00853043 0.0354083
ITEM: TIMESTEP
3
ITEM: NUMBER OF ATOMS
148
ITEM: BOX BOUNDS xy xz yz pp pp pp
-7.4696320000000007e+00 1.4939265000000001e+01 -7.4696320000000007e+00
0.0000000000000000e+00 1.2937783000000000e+01 0.0000000000000000e+00
0.0000000000000000e+00 1.5000000000000000e+01 0.0000000000000000e+00
ITEM: ATOMS id type x y z fx fy fz
1 1 0.807995 1.16599 2.99999 -0.0166528 -0.0288545 -0.0385677
2 1 2.67311e-07 9.65718e-06 2.99999 0.000960204 0.0356734 -0.0426249
3 1 3.23 4.662 3 0.0060936 -0.000220919 -9.8223e-05
4 1 2.42299 3.497 2.99999 -0.0369944 -0.00589616 -0.0205592
5 1 3.02801 2.21499 3 0.020046 -0.0433151 -0.0112427
6 1 2.221 1.049 2.99999 -0.00375382 0.0129051 -0.0353502
7 1 5.65299 8.15899 3 -0.0478954 -0.0353133 -0.000319682
8 1 4.84501 6.99301 3 0.0267661 0.0472056 -0.0133214
9 1 5.45099 5.711 3.00001 -0.0215318 -0.00927013 0.028726
10 1 4.64301 4.546 2.99999 0.0193033 0.00478412 -0.027167
11 1 5.249 3.26399 3.00001 -0.00641792 -0.045044 0.0280777
12 1 4.441 2.098 2.99999 0.0187206 0.0175939 -0.031049
13 1 5.047 0.815994 3 0.0150832 -0.0225243 -0.000286246
14 1 8.075 11.656 2.99999 -0.00464027 -0.0230067 -0.0385432
15 1 7.268 10.49 2.99999 -0.0120757 0.017859 -0.0353407
16 1 7.873 9.208 3 0.0150174 -0.0178356 -0.0111699
17 1 7.066 8.042 2.99999 0.00724359 0.011645 -0.0310332
18 1 7.67199 6.76 3.00001 -0.0385494 0.0151477 0.0280397
19 1 6.864 5.595 2.99999 0.0141746 -0.00711475 -0.0382183
20 1 7.46999 4.31299 3.00001 -0.0230168 -0.0218529 0.0481716
21 1 6.662 3.14701 2.99999 0.0117957 0.0208387 -0.0382327
22 1 7.268 1.86499 3.00001 0.00410506 -0.0201331 0.0287412
23 1 6.46 0.699004 3 -0.00454294 0.0150956 -0.0133027
24 1 -4.64327 12.705 2.99999 -0.00202724 -0.0469699 -0.0301937
25 1 -5.45126 11.539 2.99999 0.0150905 0.000115158 -0.0284393
26 1 -4.84527 10.257 2.99999 -0.0188116 -0.00135959 -0.0284732
27 1 9.28699 9.091 2.99999 -0.0452727 -0.00019379 -0.0205051
28 1 9.892 7.80901 3 -0.00810209 0.0302673 -2.51369e-05
29 1 9.085 6.64399 2.99999 -0.00801477 -0.0316818 -0.0272036
30 1 9.69001 5.362 3.00001 0.0305287 0.000789281 0.0287337
31 1 8.883 4.196 2.99999 -0.000737783 0.00786014 -0.0382159
32 1 9.48802 2.914 3.00001 0.0567225 0.00549264 0.0281555
33 1 8.681 1.748 2.99999 -0.0145428 0.0052336 -0.0271835
34 1 9.287 0.466 3 -0.00132793 -0.000718593 -7.75817e-05
35 1 -3.23027 12.588 3 -0.00614859 -0.0134813 -0.0135084
36 1 -2.62427 11.306 2.99999 -0.0086839 -0.0214526 -0.0282538
37 1 -3.43226 10.14 3 0.0111442 -0.00486551 0.00763846
38 1 -2.82627 8.85801 2.99999 -0.0174602 0.0255649 -0.0295151
39 1 -3.63426 7.69299 3 0.0216841 -0.0436838 0.00827232
40 1 -3.02827 6.411 3 -0.0195203 0.017485 -0.0104933
41 1 11.104 5.245 3 -0.024902 -0.00131882 -0.0133019
42 1 11.709 3.963 3 0.00382884 0.0131725 -0.000263161
43 1 10.902 2.797 2.99999 -0.0400113 0.0179826 -0.0309773
44 1 11.507 1.51501 3 0.0324576 0.0395414 -0.0112153
45 1 10.7 0.34999 2.99999 -0.0193863 -0.0366043 -0.0205689
46 1 -0.403271 12.355 3 -0.0223543 -0.0180873 -0.0105093
47 1 -1.21127 11.189 3.00001 -0.00578077 0.00734356 0.0227896
48 1 -0.605263 9.907 2.99999 0.00860532 0.0155476 -0.0379498
49 1 -1.41326 8.74199 3.00001 0.00899685 -0.0312275 0.0410311
50 1 -0.80727 7.46 2.99999 -0.0195361 -0.015539 -0.0379358
51 1 -1.61525 6.294 3.00001 0.0477281 0.00682057 0.0228221
52 1 -1.00927 5.012 2.99999 -0.0169109 -0.00769497 -0.0281706
53 1 -1.81725 3.846 3 0.0487561 0.0156192 -0.013583
54 1 -1.21126 2.56401 2.99999 0.00701194 0.0247038 -0.0301634
55 1 12.92 1.399 2.99999 0.0180816 -0.00884085 -0.0354384
56 1 13.526 0.117001 2.99999 0.00435019 0.00489621 -0.0385461
57 1 1.00901 12.238 3 0.0235933 0.0252955 0.00833218
58 1 1.61501 10.956 2.99999 0.0231671 0.0301898 -0.0294884
59 1 0.807988 9.791 3.00001 -0.0449699 -0.00817311 0.0410423
60 1 1.413 8.50899 2.99999 0.00396098 -0.0290313 -0.0379086
61 1 0.606 7.34301 3.00001 -0.00180341 0.0258575 0.0410928
62 1 1.211 6.06099 2.99999 -8.82956e-06 -0.0303298 -0.0295435
63 1 0.404004 4.89501 3 0.0139289 0.0264021 0.00754037
64 1 1.00902 3.613 2.99999 0.0592879 0.00326958 -0.0284911
65 1 0.202001 2.44799 2.99999 0.00382123 -0.0267623 -0.02845
66 1 3.836 12.005 2.99999 -0.0079636 0.0423078 -0.0285691
67 1 3.028 10.84 3 -0.0108137 0.0143268 0.00765859
68 1 3.63399 9.55799 2.99999 -0.0279681 -0.0310562 -0.0282756
69 1 2.82601 8.39201 3.00001 0.0236401 0.04729 0.0228009
70 1 3.43199 7.10999 3 -0.0339984 -0.0429905 -0.0105485
71 1 2.62401 5.94401 3 0.0431941 0.0432717 0.0082657
72 1 5.249 11.889 2.99999 -0.00156553 0.0142883 -0.0284704
73 1 5.85499 10.607 2.99999 -0.0373622 -0.0208291 -0.030254
74 1 5.047 9.44101 3 0.01328 0.0435275 -0.0135713
75 2 -3.81572e-06 -1.61005e-06 6.40001 -0.0139859 -0.00577277 0.0426075
76 2 2.62401 2.681 6.40001 0.0429318 -0.0171783 0.0285101
77 2 2.019 1.399 6.40001 -0.0131981 0.00131433 0.0285011
78 2 2.82601 0.233008 6.40001 0.0489314 0.0310885 0.0302249
79 2 4.44101 6.527 6.4 0.0291956 -0.00643787 0.010561
80 2 3.836 5.245 6.4 0.00472475 0.0116118 -0.0082953